# vtk DataFile Version 4.0
vtk output
ASCII
DATASET POLYDATA
POINTS 60 float
-5.87795 45.5725 46.6456 -6.31629 45.6863 44.9051 -6.8832 45.8608 43.2063 
-7.60108 45.9142 41.5585 -8.47799 45.675 40.0087 -9.39082 44.9604 38.6429 
-10.1435 43.753 37.5492 -10.7357 42.2923 36.6851 -11.2616 40.7139 35.9988 
-11.7048 39.0753 35.4018 -12.1211 37.4389 34.7796 -12.6083 35.8858 34.0147 
-13.1376 34.5655 32.9204 -13.6438 33.5167 31.5506 -14.1405 32.6497 30.0542 
-14.5872 31.8601 28.4997 -14.9385 31.0691 26.9219 -15.0428 30.3201 25.2936 
-14.5146 29.616 23.7362 -13.478 29.0773 22.3727 -12.2391 28.6116 21.1534 
-10.9611 28.1414 19.9762 -9.68046 27.6825 18.7976 -8.33827 27.2379 17.6845 
-6.87332 26.8214 16.7268 -5.30711 26.4571 15.9195 -3.6651 26.1524 15.2487 
-1.99903 25.8934 14.619 -0.272189 25.7184 14.1512 1.51998 25.7037 14.0538 
3 25.7873 14.2724 4.45067 25.906 14.6327 6.15395 26.1186 15.1732 
7.81454 26.4068 15.804 9.41255 26.7526 16.5554 10.9385 27.17 17.4132 
12.4084 27.6185 18.35 13.8561 28.0667 19.3212 15.2723 28.5219 20.3345 
16.644 28.9578 21.4151 17.9508 29.4256 22.5603 19.1497 29.979 23.782 
20.0458 30.6625 25.1766 20.3257 31.6084 26.6672 20.0074 32.6387 28.1033 
19.3747 33.5166 29.5386 18.5014 34.2944 30.9054 17.5063 35.2057 32.0951 
16.4077 36.1604 33.1536 15.2643 37.1162 34.1629 14.1032 38.0271 35.1933 
13.0049 38.905 36.316 12.0459 39.772 37.567 11.2517 40.5836 38.9624 
10.3936 41.1203 40.4413 9.3916 40.8782 41.8979 8.52899 40.3348 43.3797 
7.69998 40.15 44.9603 6.97497 40.542 46.5505 6.34261 41.4481 47.963 

LINES 1 61
60 0 1 2 3 4 5 6 7 8 9 10 11 12 13 14 15 16 17 18 19 20 21 22 23 24 25 26 27 28 29 30 31 32 33 34 35 36 37 38 39 40 41 42 43 44 45 46 47 48 49 50 51 52 53 54 55 56 57 58 59 

POINT_DATA 60
FIELD FieldData 1
RANDARRAY 1 60 double
0.81787 0.595397 0.197063 0.991127 0.976741 0.804367 0.346301 0.100142 0.193635 
0.0378677 0.444774 0.780073 0.426525 0.774192 0.765277 0.968237 0.069852 0.287893 
0.0604638 0.340746 0.98026 0.611797 0.963014 0.878509 0.91017 0.721776 0.0652108 
0.789717 0.639065 0.673024 0.0148516 0.923146 0.388264 0.920742 0.485409 0.99897 
0.414107 0.562507 0.474771 0.182289 0.621647 0.737416 0.96598 0.627021 0.463968 
0.928957 0.518274 0.79058 0.99335 0.396943 0.27392 0.0251089 0.995054 0.46926 
0.0960025 0.301948 0.319466 0.878315 0.772408 0.896582 
